TITLE = "mpm3d *** 1D TNT                                            "
VARIABLES= "X"   "Y"   "Z"   "mat " "pres" "velx"
ZONE T="time 0.000E+00"
  0.1250E-01  0.1250E-01  0.1250E-01  1  0.0000E+00  0.0000E+00
  0.3750E-01  0.1250E-01  0.1250E-01  1  0.0000E+00  0.0000E+00
  0.6250E-01  0.1250E-01  0.1250E-01  1  0.0000E+00  0.0000E+00
  0.8750E-01  0.1250E-01  0.1250E-01  1  0.0000E+00  0.0000E+00
  0.1125E+00  0.1250E-01  0.1250E-01  1  0.0000E+00  0.0000E+00
  0.1375E+00  0.1250E-01  0.1250E-01  1  0.0000E+00  0.0000E+00
  0.1625E+00  0.1250E-01  0.1250E-01  1  0.0000E+00  0.0000E+00
  0.1875E+00  0.1250E-01  0.1250E-01  1  0.0000E+00  0.0000E+00
  0.2125E+00  0.1250E-01  0.1250E-01  1  0.0000E+00  0.0000E+00
  0.2375E+00  0.1250E-01  0.1250E-01  1  0.0000E+00  0.0000E+00
  0.2625E+00  0.1250E-01  0.1250E-01  1  0.0000E+00  0.0000E+00
  0.2875E+00  0.1250E-01  0.1250E-01  1  0.0000E+00  0.0000E+00
  0.3125E+00  0.1250E-01  0.1250E-01  1  0.0000E+00  0.0000E+00
  0.3375E+00  0.1250E-01  0.1250E-01  1  0.0000E+00  0.0000E+00
  0.3625E+00  0.1250E-01  0.1250E-01  1  0.0000E+00  0.0000E+00
  0.3875E+00  0.1250E-01  0.1250E-01  1  0.0000E+00  0.0000E+00
  0.4125E+00  0.1250E-01  0.1250E-01  1  0.0000E+00  0.0000E+00
  0.4375E+00  0.1250E-01  0.1250E-01  1  0.0000E+00  0.0000E+00
  0.4625E+00  0.1250E-01  0.1250E-01  1  0.0000E+00  0.0000E+00
  0.4875E+00  0.1250E-01  0.1250E-01  1  0.0000E+00  0.0000E+00
  0.5125E+00  0.1250E-01  0.1250E-01  1  0.0000E+00  0.0000E+00
  0.5375E+00  0.1250E-01  0.1250E-01  1  0.0000E+00  0.0000E+00
  0.5625E+00  0.1250E-01  0.1250E-01  1  0.0000E+00  0.0000E+00
  0.5875E+00  0.1250E-01  0.1250E-01  1  0.0000E+00  0.0000E+00
  0.6125E+00  0.1250E-01  0.1250E-01  1  0.0000E+00  0.0000E+00
  0.6375E+00  0.1250E-01  0.1250E-01  1  0.0000E+00  0.0000E+00
  0.6625E+00  0.1250E-01  0.1250E-01  1  0.0000E+00  0.0000E+00
  0.6875E+00  0.1250E-01  0.1250E-01  1  0.0000E+00  0.0000E+00
  0.7125E+00  0.1250E-01  0.1250E-01  1  0.0000E+00  0.0000E+00
  0.7375E+00  0.1250E-01  0.1250E-01  1  0.0000E+00  0.0000E+00
  0.7625E+00  0.1250E-01  0.1250E-01  1  0.0000E+00  0.0000E+00
  0.7875E+00  0.1250E-01  0.1250E-01  1  0.0000E+00  0.0000E+00
  0.8125E+00  0.1250E-01  0.1250E-01  1  0.0000E+00  0.0000E+00
  0.8375E+00  0.1250E-01  0.1250E-01  1  0.0000E+00  0.0000E+00
  0.8625E+00  0.1250E-01  0.1250E-01  1  0.0000E+00  0.0000E+00
  0.8875E+00  0.1250E-01  0.1250E-01  1  0.0000E+00  0.0000E+00
  0.9125E+00  0.1250E-01  0.1250E-01  1  0.0000E+00  0.0000E+00
  0.9375E+00  0.1250E-01  0.1250E-01  1  0.0000E+00  0.0000E+00
  0.9625E+00  0.1250E-01  0.1250E-01  1  0.0000E+00  0.0000E+00
  0.9875E+00  0.1250E-01  0.1250E-01  1  0.0000E+00  0.0000E+00
  0.1013E+01  0.1250E-01  0.1250E-01  1  0.0000E+00  0.0000E+00
  0.1038E+01  0.1250E-01  0.1250E-01  1  0.0000E+00  0.0000E+00
  0.1063E+01  0.1250E-01  0.1250E-01  1  0.0000E+00  0.0000E+00
  0.1088E+01  0.1250E-01  0.1250E-01  1  0.0000E+00  0.0000E+00
  0.1113E+01  0.1250E-01  0.1250E-01  1  0.0000E+00  0.0000E+00
  0.1138E+01  0.1250E-01  0.1250E-01  1  0.0000E+00  0.0000E+00
  0.1163E+01  0.1250E-01  0.1250E-01  1  0.0000E+00  0.0000E+00
  0.1188E+01  0.1250E-01  0.1250E-01  1  0.0000E+00  0.0000E+00
  0.1213E+01  0.1250E-01  0.1250E-01  1  0.0000E+00  0.0000E+00
  0.1238E+01  0.1250E-01  0.1250E-01  1  0.0000E+00  0.0000E+00
  0.1263E+01  0.1250E-01  0.1250E-01  1  0.0000E+00  0.0000E+00
  0.1288E+01  0.1250E-01  0.1250E-01  1  0.0000E+00  0.0000E+00
  0.1313E+01  0.1250E-01  0.1250E-01  1  0.0000E+00  0.0000E+00
  0.1338E+01  0.1250E-01  0.1250E-01  1  0.0000E+00  0.0000E+00
  0.1363E+01  0.1250E-01  0.1250E-01  1  0.0000E+00  0.0000E+00
  0.1388E+01  0.1250E-01  0.1250E-01  1  0.0000E+00  0.0000E+00
  0.1413E+01  0.1250E-01  0.1250E-01  1  0.0000E+00  0.0000E+00
  0.1438E+01  0.1250E-01  0.1250E-01  1  0.0000E+00  0.0000E+00
  0.1463E+01  0.1250E-01  0.1250E-01  1  0.0000E+00  0.0000E+00
  0.1488E+01  0.1250E-01  0.1250E-01  1  0.0000E+00  0.0000E+00
  0.1513E+01  0.1250E-01  0.1250E-01  1  0.0000E+00  0.0000E+00
  0.1538E+01  0.1250E-01  0.1250E-01  1  0.0000E+00  0.0000E+00
  0.1563E+01  0.1250E-01  0.1250E-01  1  0.0000E+00  0.0000E+00
  0.1588E+01  0.1250E-01  0.1250E-01  1  0.0000E+00  0.0000E+00
  0.1613E+01  0.1250E-01  0.1250E-01  1  0.0000E+00  0.0000E+00
  0.1638E+01  0.1250E-01  0.1250E-01  1  0.0000E+00  0.0000E+00
  0.1663E+01  0.1250E-01  0.1250E-01  1  0.0000E+00  0.0000E+00
  0.1688E+01  0.1250E-01  0.1250E-01  1  0.0000E+00  0.0000E+00
  0.1713E+01  0.1250E-01  0.1250E-01  1  0.0000E+00  0.0000E+00
  0.1738E+01  0.1250E-01  0.1250E-01  1  0.0000E+00  0.0000E+00
  0.1763E+01  0.1250E-01  0.1250E-01  1  0.0000E+00  0.0000E+00
  0.1788E+01  0.1250E-01  0.1250E-01  1  0.0000E+00  0.0000E+00
  0.1813E+01  0.1250E-01  0.1250E-01  1  0.0000E+00  0.0000E+00
  0.1838E+01  0.1250E-01  0.1250E-01  1  0.0000E+00  0.0000E+00
  0.1863E+01  0.1250E-01  0.1250E-01  1  0.0000E+00  0.0000E+00
  0.1888E+01  0.1250E-01  0.1250E-01  1  0.0000E+00  0.0000E+00
  0.1913E+01  0.1250E-01  0.1250E-01  1  0.0000E+00  0.0000E+00
  0.1938E+01  0.1250E-01  0.1250E-01  1  0.0000E+00  0.0000E+00
  0.1963E+01  0.1250E-01  0.1250E-01  1  0.0000E+00  0.0000E+00
  0.1988E+01  0.1250E-01  0.1250E-01  1  0.0000E+00  0.0000E+00
  0.2013E+01  0.1250E-01  0.1250E-01  1  0.0000E+00  0.0000E+00
  0.2038E+01  0.1250E-01  0.1250E-01  1  0.0000E+00  0.0000E+00
  0.2063E+01  0.1250E-01  0.1250E-01  1  0.0000E+00  0.0000E+00
  0.2088E+01  0.1250E-01  0.1250E-01  1  0.0000E+00  0.0000E+00
  0.2113E+01  0.1250E-01  0.1250E-01  1  0.0000E+00  0.0000E+00
  0.2138E+01  0.1250E-01  0.1250E-01  1  0.0000E+00  0.0000E+00
  0.2163E+01  0.1250E-01  0.1250E-01  1  0.0000E+00  0.0000E+00
  0.2188E+01  0.1250E-01  0.1250E-01  1  0.0000E+00  0.0000E+00
  0.2213E+01  0.1250E-01  0.1250E-01  1  0.0000E+00  0.0000E+00
  0.2238E+01  0.1250E-01  0.1250E-01  1  0.0000E+00  0.0000E+00
  0.2263E+01  0.1250E-01  0.1250E-01  1  0.0000E+00  0.0000E+00
  0.2288E+01  0.1250E-01  0.1250E-01  1  0.0000E+00  0.0000E+00
  0.2313E+01  0.1250E-01  0.1250E-01  1  0.0000E+00  0.0000E+00
  0.2338E+01  0.1250E-01  0.1250E-01  1  0.0000E+00  0.0000E+00
  0.2363E+01  0.1250E-01  0.1250E-01  1  0.0000E+00  0.0000E+00
  0.2388E+01  0.1250E-01  0.1250E-01  1  0.0000E+00  0.0000E+00
  0.2413E+01  0.1250E-01  0.1250E-01  1  0.0000E+00  0.0000E+00
  0.2438E+01  0.1250E-01  0.1250E-01  1  0.0000E+00  0.0000E+00
  0.2463E+01  0.1250E-01  0.1250E-01  1  0.0000E+00  0.0000E+00
  0.2488E+01  0.1250E-01  0.1250E-01  1  0.0000E+00  0.0000E+00
  0.2513E+01  0.1250E-01  0.1250E-01  1  0.0000E+00  0.0000E+00
  0.2538E+01  0.1250E-01  0.1250E-01  1  0.0000E+00  0.0000E+00
  0.2563E+01  0.1250E-01  0.1250E-01  1  0.0000E+00  0.0000E+00
  0.2588E+01  0.1250E-01  0.1250E-01  1  0.0000E+00  0.0000E+00
  0.2613E+01  0.1250E-01  0.1250E-01  1  0.0000E+00  0.0000E+00
  0.2638E+01  0.1250E-01  0.1250E-01  1  0.0000E+00  0.0000E+00
  0.2663E+01  0.1250E-01  0.1250E-01  1  0.0000E+00  0.0000E+00
  0.2688E+01  0.1250E-01  0.1250E-01  1  0.0000E+00  0.0000E+00
  0.2713E+01  0.1250E-01  0.1250E-01  1  0.0000E+00  0.0000E+00
  0.2738E+01  0.1250E-01  0.1250E-01  1  0.0000E+00  0.0000E+00
  0.2763E+01  0.1250E-01  0.1250E-01  1  0.0000E+00  0.0000E+00
  0.2788E+01  0.1250E-01  0.1250E-01  1  0.0000E+00  0.0000E+00
  0.2813E+01  0.1250E-01  0.1250E-01  1  0.0000E+00  0.0000E+00
  0.2838E+01  0.1250E-01  0.1250E-01  1  0.0000E+00  0.0000E+00
  0.2863E+01  0.1250E-01  0.1250E-01  1  0.0000E+00  0.0000E+00
  0.2888E+01  0.1250E-01  0.1250E-01  1  0.0000E+00  0.0000E+00
  0.2913E+01  0.1250E-01  0.1250E-01  1  0.0000E+00  0.0000E+00
  0.2938E+01  0.1250E-01  0.1250E-01  1  0.0000E+00  0.0000E+00
  0.2963E+01  0.1250E-01  0.1250E-01  1  0.0000E+00  0.0000E+00
  0.2988E+01  0.1250E-01  0.1250E-01  1  0.0000E+00  0.0000E+00
  0.3013E+01  0.1250E-01  0.1250E-01  1  0.0000E+00  0.0000E+00
  0.3038E+01  0.1250E-01  0.1250E-01  1  0.0000E+00  0.0000E+00
  0.3063E+01  0.1250E-01  0.1250E-01  1  0.0000E+00  0.0000E+00
  0.3088E+01  0.1250E-01  0.1250E-01  1  0.0000E+00  0.0000E+00
  0.3113E+01  0.1250E-01  0.1250E-01  1  0.0000E+00  0.0000E+00
  0.3138E+01  0.1250E-01  0.1250E-01  1  0.0000E+00  0.0000E+00
  0.3163E+01  0.1250E-01  0.1250E-01  1  0.0000E+00  0.0000E+00
  0.3188E+01  0.1250E-01  0.1250E-01  1  0.0000E+00  0.0000E+00
  0.3213E+01  0.1250E-01  0.1250E-01  1  0.0000E+00  0.0000E+00
  0.3238E+01  0.1250E-01  0.1250E-01  1  0.0000E+00  0.0000E+00
  0.3263E+01  0.1250E-01  0.1250E-01  1  0.0000E+00  0.0000E+00
  0.3288E+01  0.1250E-01  0.1250E-01  1  0.0000E+00  0.0000E+00
  0.3313E+01  0.1250E-01  0.1250E-01  1  0.0000E+00  0.0000E+00
  0.3338E+01  0.1250E-01  0.1250E-01  1  0.0000E+00  0.0000E+00
  0.3363E+01  0.1250E-01  0.1250E-01  1  0.0000E+00  0.0000E+00
  0.3388E+01  0.1250E-01  0.1250E-01  1  0.0000E+00  0.0000E+00
  0.3413E+01  0.1250E-01  0.1250E-01  1  0.0000E+00  0.0000E+00
  0.3438E+01  0.1250E-01  0.1250E-01  1  0.0000E+00  0.0000E+00
  0.3463E+01  0.1250E-01  0.1250E-01  1  0.0000E+00  0.0000E+00
  0.3488E+01  0.1250E-01  0.1250E-01  1  0.0000E+00  0.0000E+00
  0.3513E+01  0.1250E-01  0.1250E-01  1  0.0000E+00  0.0000E+00
  0.3538E+01  0.1250E-01  0.1250E-01  1  0.0000E+00  0.0000E+00
  0.3563E+01  0.1250E-01  0.1250E-01  1  0.0000E+00  0.0000E+00
  0.3588E+01  0.1250E-01  0.1250E-01  1  0.0000E+00  0.0000E+00
  0.3613E+01  0.1250E-01  0.1250E-01  1  0.0000E+00  0.0000E+00
  0.3638E+01  0.1250E-01  0.1250E-01  1  0.0000E+00  0.0000E+00
  0.3663E+01  0.1250E-01  0.1250E-01  1  0.0000E+00  0.0000E+00
  0.3688E+01  0.1250E-01  0.1250E-01  1  0.0000E+00  0.0000E+00
  0.3713E+01  0.1250E-01  0.1250E-01  1  0.0000E+00  0.0000E+00
  0.3738E+01  0.1250E-01  0.1250E-01  1  0.0000E+00  0.0000E+00
  0.3763E+01  0.1250E-01  0.1250E-01  1  0.0000E+00  0.0000E+00
  0.3788E+01  0.1250E-01  0.1250E-01  1  0.0000E+00  0.0000E+00
  0.3813E+01  0.1250E-01  0.1250E-01  1  0.0000E+00  0.0000E+00
  0.3838E+01  0.1250E-01  0.1250E-01  1  0.0000E+00  0.0000E+00
  0.3863E+01  0.1250E-01  0.1250E-01  1  0.0000E+00  0.0000E+00
  0.3888E+01  0.1250E-01  0.1250E-01  1  0.0000E+00  0.0000E+00
  0.3913E+01  0.1250E-01  0.1250E-01  1  0.0000E+00  0.0000E+00
  0.3938E+01  0.1250E-01  0.1250E-01  1  0.0000E+00  0.0000E+00
  0.3963E+01  0.1250E-01  0.1250E-01  1  0.0000E+00  0.0000E+00
  0.3988E+01  0.1250E-01  0.1250E-01  1  0.0000E+00  0.0000E+00
  0.4013E+01  0.1250E-01  0.1250E-01  1  0.0000E+00  0.0000E+00
  0.4038E+01  0.1250E-01  0.1250E-01  1  0.0000E+00  0.0000E+00
  0.4063E+01  0.1250E-01  0.1250E-01  1  0.0000E+00  0.0000E+00
  0.4088E+01  0.1250E-01  0.1250E-01  1  0.0000E+00  0.0000E+00
  0.4113E+01  0.1250E-01  0.1250E-01  1  0.0000E+00  0.0000E+00
  0.4138E+01  0.1250E-01  0.1250E-01  1  0.0000E+00  0.0000E+00
  0.4163E+01  0.1250E-01  0.1250E-01  1  0.0000E+00  0.0000E+00
  0.4188E+01  0.1250E-01  0.1250E-01  1  0.0000E+00  0.0000E+00
  0.4213E+01  0.1250E-01  0.1250E-01  1  0.0000E+00  0.0000E+00
  0.4238E+01  0.1250E-01  0.1250E-01  1  0.0000E+00  0.0000E+00
  0.4263E+01  0.1250E-01  0.1250E-01  1  0.0000E+00  0.0000E+00
  0.4288E+01  0.1250E-01  0.1250E-01  1  0.0000E+00  0.0000E+00
  0.4313E+01  0.1250E-01  0.1250E-01  1  0.0000E+00  0.0000E+00
  0.4338E+01  0.1250E-01  0.1250E-01  1  0.0000E+00  0.0000E+00
  0.4363E+01  0.1250E-01  0.1250E-01  1  0.0000E+00  0.0000E+00
  0.4388E+01  0.1250E-01  0.1250E-01  1  0.0000E+00  0.0000E+00
  0.4413E+01  0.1250E-01  0.1250E-01  1  0.0000E+00  0.0000E+00
  0.4438E+01  0.1250E-01  0.1250E-01  1  0.0000E+00  0.0000E+00
  0.4463E+01  0.1250E-01  0.1250E-01  1  0.0000E+00  0.0000E+00
  0.4488E+01  0.1250E-01  0.1250E-01  1  0.0000E+00  0.0000E+00
  0.4513E+01  0.1250E-01  0.1250E-01  1  0.0000E+00  0.0000E+00
  0.4538E+01  0.1250E-01  0.1250E-01  1  0.0000E+00  0.0000E+00
  0.4563E+01  0.1250E-01  0.1250E-01  1  0.0000E+00  0.0000E+00
  0.4588E+01  0.1250E-01  0.1250E-01  1  0.0000E+00  0.0000E+00
  0.4613E+01  0.1250E-01  0.1250E-01  1  0.0000E+00  0.0000E+00
  0.4638E+01  0.1250E-01  0.1250E-01  1  0.0000E+00  0.0000E+00
  0.4663E+01  0.1250E-01  0.1250E-01  1  0.0000E+00  0.0000E+00
  0.4688E+01  0.1250E-01  0.1250E-01  1  0.0000E+00  0.0000E+00
  0.4713E+01  0.1250E-01  0.1250E-01  1  0.0000E+00  0.0000E+00
  0.4738E+01  0.1250E-01  0.1250E-01  1  0.0000E+00  0.0000E+00
  0.4763E+01  0.1250E-01  0.1250E-01  1  0.0000E+00  0.0000E+00
  0.4788E+01  0.1250E-01  0.1250E-01  1  0.0000E+00  0.0000E+00
  0.4813E+01  0.1250E-01  0.1250E-01  1  0.0000E+00  0.0000E+00
  0.4838E+01  0.1250E-01  0.1250E-01  1  0.0000E+00  0.0000E+00
  0.4863E+01  0.1250E-01  0.1250E-01  1  0.0000E+00  0.0000E+00
  0.4888E+01  0.1250E-01  0.1250E-01  1  0.0000E+00  0.0000E+00
  0.4913E+01  0.1250E-01  0.1250E-01  1  0.0000E+00  0.0000E+00
  0.4938E+01  0.1250E-01  0.1250E-01  1  0.0000E+00  0.0000E+00
  0.4963E+01  0.1250E-01  0.1250E-01  1  0.0000E+00  0.0000E+00
  0.4988E+01  0.1250E-01  0.1250E-01  1  0.0000E+00  0.0000E+00
  0.5013E+01  0.1250E-01  0.1250E-01  1  0.0000E+00  0.0000E+00
  0.5038E+01  0.1250E-01  0.1250E-01  1  0.0000E+00  0.0000E+00
  0.5063E+01  0.1250E-01  0.1250E-01  1  0.0000E+00  0.0000E+00
  0.5088E+01  0.1250E-01  0.1250E-01  1  0.0000E+00  0.0000E+00
  0.5113E+01  0.1250E-01  0.1250E-01  1  0.0000E+00  0.0000E+00
  0.5138E+01  0.1250E-01  0.1250E-01  1  0.0000E+00  0.0000E+00
  0.5163E+01  0.1250E-01  0.1250E-01  1  0.0000E+00  0.0000E+00
  0.5188E+01  0.1250E-01  0.1250E-01  1  0.0000E+00  0.0000E+00
  0.5213E+01  0.1250E-01  0.1250E-01  1  0.0000E+00  0.0000E+00
  0.5238E+01  0.1250E-01  0.1250E-01  1  0.0000E+00  0.0000E+00
  0.5263E+01  0.1250E-01  0.1250E-01  1  0.0000E+00  0.0000E+00
  0.5288E+01  0.1250E-01  0.1250E-01  1  0.0000E+00  0.0000E+00
  0.5313E+01  0.1250E-01  0.1250E-01  1  0.0000E+00  0.0000E+00
  0.5338E+01  0.1250E-01  0.1250E-01  1  0.0000E+00  0.0000E+00
  0.5363E+01  0.1250E-01  0.1250E-01  1  0.0000E+00  0.0000E+00
  0.5388E+01  0.1250E-01  0.1250E-01  1  0.0000E+00  0.0000E+00
  0.5413E+01  0.1250E-01  0.1250E-01  1  0.0000E+00  0.0000E+00
  0.5438E+01  0.1250E-01  0.1250E-01  1  0.0000E+00  0.0000E+00
  0.5463E+01  0.1250E-01  0.1250E-01  1  0.0000E+00  0.0000E+00
  0.5488E+01  0.1250E-01  0.1250E-01  1  0.0000E+00  0.0000E+00
  0.5513E+01  0.1250E-01  0.1250E-01  1  0.0000E+00  0.0000E+00
  0.5538E+01  0.1250E-01  0.1250E-01  1  0.0000E+00  0.0000E+00
  0.5563E+01  0.1250E-01  0.1250E-01  1  0.0000E+00  0.0000E+00
  0.5588E+01  0.1250E-01  0.1250E-01  1  0.0000E+00  0.0000E+00
  0.5613E+01  0.1250E-01  0.1250E-01  1  0.0000E+00  0.0000E+00
  0.5638E+01  0.1250E-01  0.1250E-01  1  0.0000E+00  0.0000E+00
  0.5663E+01  0.1250E-01  0.1250E-01  1  0.0000E+00  0.0000E+00
  0.5688E+01  0.1250E-01  0.1250E-01  1  0.0000E+00  0.0000E+00
  0.5713E+01  0.1250E-01  0.1250E-01  1  0.0000E+00  0.0000E+00
  0.5738E+01  0.1250E-01  0.1250E-01  1  0.0000E+00  0.0000E+00
  0.5763E+01  0.1250E-01  0.1250E-01  1  0.0000E+00  0.0000E+00
  0.5788E+01  0.1250E-01  0.1250E-01  1  0.0000E+00  0.0000E+00
  0.5813E+01  0.1250E-01  0.1250E-01  1  0.0000E+00  0.0000E+00
  0.5838E+01  0.1250E-01  0.1250E-01  1  0.0000E+00  0.0000E+00
  0.5863E+01  0.1250E-01  0.1250E-01  1  0.0000E+00  0.0000E+00
  0.5888E+01  0.1250E-01  0.1250E-01  1  0.0000E+00  0.0000E+00
  0.5913E+01  0.1250E-01  0.1250E-01  1  0.0000E+00  0.0000E+00
  0.5938E+01  0.1250E-01  0.1250E-01  1  0.0000E+00  0.0000E+00
  0.5963E+01  0.1250E-01  0.1250E-01  1  0.0000E+00  0.0000E+00
  0.5988E+01  0.1250E-01  0.1250E-01  1  0.0000E+00  0.0000E+00
  0.6013E+01  0.1250E-01  0.1250E-01  1  0.0000E+00  0.0000E+00
  0.6038E+01  0.1250E-01  0.1250E-01  1  0.0000E+00  0.0000E+00
  0.6063E+01  0.1250E-01  0.1250E-01  1  0.0000E+00  0.0000E+00
  0.6088E+01  0.1250E-01  0.1250E-01  1  0.0000E+00  0.0000E+00
  0.6113E+01  0.1250E-01  0.1250E-01  1  0.0000E+00  0.0000E+00
  0.6138E+01  0.1250E-01  0.1250E-01  1  0.0000E+00  0.0000E+00
  0.6163E+01  0.1250E-01  0.1250E-01  1  0.0000E+00  0.0000E+00
  0.6188E+01  0.1250E-01  0.1250E-01  1  0.0000E+00  0.0000E+00
  0.6213E+01  0.1250E-01  0.1250E-01  1  0.0000E+00  0.0000E+00
  0.6238E+01  0.1250E-01  0.1250E-01  1  0.0000E+00  0.0000E+00
  0.6263E+01  0.1250E-01  0.1250E-01  1  0.0000E+00  0.0000E+00
  0.6288E+01  0.1250E-01  0.1250E-01  1  0.0000E+00  0.0000E+00
  0.6313E+01  0.1250E-01  0.1250E-01  1  0.0000E+00  0.0000E+00
  0.6338E+01  0.1250E-01  0.1250E-01  1  0.0000E+00  0.0000E+00
  0.6363E+01  0.1250E-01  0.1250E-01  1  0.0000E+00  0.0000E+00
  0.6388E+01  0.1250E-01  0.1250E-01  1  0.0000E+00  0.0000E+00
  0.6413E+01  0.1250E-01  0.1250E-01  1  0.0000E+00  0.0000E+00
  0.6438E+01  0.1250E-01  0.1250E-01  1  0.0000E+00  0.0000E+00
  0.6463E+01  0.1250E-01  0.1250E-01  1  0.0000E+00  0.0000E+00
  0.6488E+01  0.1250E-01  0.1250E-01  1  0.0000E+00  0.0000E+00
  0.6513E+01  0.1250E-01  0.1250E-01  1  0.0000E+00  0.0000E+00
  0.6538E+01  0.1250E-01  0.1250E-01  1  0.0000E+00  0.0000E+00
  0.6563E+01  0.1250E-01  0.1250E-01  1  0.0000E+00  0.0000E+00
  0.6588E+01  0.1250E-01  0.1250E-01  1  0.0000E+00  0.0000E+00
  0.6613E+01  0.1250E-01  0.1250E-01  1  0.0000E+00  0.0000E+00
  0.6638E+01  0.1250E-01  0.1250E-01  1  0.0000E+00  0.0000E+00
  0.6663E+01  0.1250E-01  0.1250E-01  1  0.0000E+00  0.0000E+00
  0.6688E+01  0.1250E-01  0.1250E-01  1  0.0000E+00  0.0000E+00
  0.6713E+01  0.1250E-01  0.1250E-01  1  0.0000E+00  0.0000E+00
  0.6738E+01  0.1250E-01  0.1250E-01  1  0.0000E+00  0.0000E+00
  0.6763E+01  0.1250E-01  0.1250E-01  1  0.0000E+00  0.0000E+00
  0.6788E+01  0.1250E-01  0.1250E-01  1  0.0000E+00  0.0000E+00
  0.6813E+01  0.1250E-01  0.1250E-01  1  0.0000E+00  0.0000E+00
  0.6838E+01  0.1250E-01  0.1250E-01  1  0.0000E+00  0.0000E+00
  0.6863E+01  0.1250E-01  0.1250E-01  1  0.0000E+00  0.0000E+00
  0.6888E+01  0.1250E-01  0.1250E-01  1  0.0000E+00  0.0000E+00
  0.6913E+01  0.1250E-01  0.1250E-01  1  0.0000E+00  0.0000E+00
  0.6938E+01  0.1250E-01  0.1250E-01  1  0.0000E+00  0.0000E+00
  0.6963E+01  0.1250E-01  0.1250E-01  1  0.0000E+00  0.0000E+00
  0.6988E+01  0.1250E-01  0.1250E-01  1  0.0000E+00  0.0000E+00
  0.7013E+01  0.1250E-01  0.1250E-01  1  0.0000E+00  0.0000E+00
  0.7038E+01  0.1250E-01  0.1250E-01  1  0.0000E+00  0.0000E+00
  0.7063E+01  0.1250E-01  0.1250E-01  1  0.0000E+00  0.0000E+00
  0.7088E+01  0.1250E-01  0.1250E-01  1  0.0000E+00  0.0000E+00
  0.7113E+01  0.1250E-01  0.1250E-01  1  0.0000E+00  0.0000E+00
  0.7138E+01  0.1250E-01  0.1250E-01  1  0.0000E+00  0.0000E+00
  0.7163E+01  0.1250E-01  0.1250E-01  1  0.0000E+00  0.0000E+00
  0.7188E+01  0.1250E-01  0.1250E-01  1  0.0000E+00  0.0000E+00
  0.7213E+01  0.1250E-01  0.1250E-01  1  0.0000E+00  0.0000E+00
  0.7238E+01  0.1250E-01  0.1250E-01  1  0.0000E+00  0.0000E+00
  0.7263E+01  0.1250E-01  0.1250E-01  1  0.0000E+00  0.0000E+00
  0.7288E+01  0.1250E-01  0.1250E-01  1  0.0000E+00  0.0000E+00
  0.7313E+01  0.1250E-01  0.1250E-01  1  0.0000E+00  0.0000E+00
  0.7338E+01  0.1250E-01  0.1250E-01  1  0.0000E+00  0.0000E+00
  0.7363E+01  0.1250E-01  0.1250E-01  1  0.0000E+00  0.0000E+00
  0.7388E+01  0.1250E-01  0.1250E-01  1  0.0000E+00  0.0000E+00
  0.7413E+01  0.1250E-01  0.1250E-01  1  0.0000E+00  0.0000E+00
  0.7438E+01  0.1250E-01  0.1250E-01  1  0.0000E+00  0.0000E+00
  0.7463E+01  0.1250E-01  0.1250E-01  1  0.0000E+00  0.0000E+00
  0.7488E+01  0.1250E-01  0.1250E-01  1  0.0000E+00  0.0000E+00
  0.7513E+01  0.1250E-01  0.1250E-01  1  0.0000E+00  0.0000E+00
  0.7538E+01  0.1250E-01  0.1250E-01  1  0.0000E+00  0.0000E+00
  0.7563E+01  0.1250E-01  0.1250E-01  1  0.0000E+00  0.0000E+00
  0.7588E+01  0.1250E-01  0.1250E-01  1  0.0000E+00  0.0000E+00
  0.7613E+01  0.1250E-01  0.1250E-01  1  0.0000E+00  0.0000E+00
  0.7638E+01  0.1250E-01  0.1250E-01  1  0.0000E+00  0.0000E+00
  0.7663E+01  0.1250E-01  0.1250E-01  1  0.0000E+00  0.0000E+00
  0.7688E+01  0.1250E-01  0.1250E-01  1  0.0000E+00  0.0000E+00
  0.7713E+01  0.1250E-01  0.1250E-01  1  0.0000E+00  0.0000E+00
  0.7738E+01  0.1250E-01  0.1250E-01  1  0.0000E+00  0.0000E+00
  0.7763E+01  0.1250E-01  0.1250E-01  1  0.0000E+00  0.0000E+00
  0.7788E+01  0.1250E-01  0.1250E-01  1  0.0000E+00  0.0000E+00
  0.7813E+01  0.1250E-01  0.1250E-01  1  0.0000E+00  0.0000E+00
  0.7838E+01  0.1250E-01  0.1250E-01  1  0.0000E+00  0.0000E+00
  0.7863E+01  0.1250E-01  0.1250E-01  1  0.0000E+00  0.0000E+00
  0.7888E+01  0.1250E-01  0.1250E-01  1  0.0000E+00  0.0000E+00
  0.7913E+01  0.1250E-01  0.1250E-01  1  0.0000E+00  0.0000E+00
  0.7938E+01  0.1250E-01  0.1250E-01  1  0.0000E+00  0.0000E+00
  0.7963E+01  0.1250E-01  0.1250E-01  1  0.0000E+00  0.0000E+00
  0.7988E+01  0.1250E-01  0.1250E-01  1  0.0000E+00  0.0000E+00
  0.8013E+01  0.1250E-01  0.1250E-01  1  0.0000E+00  0.0000E+00
  0.8038E+01  0.1250E-01  0.1250E-01  1  0.0000E+00  0.0000E+00
  0.8063E+01  0.1250E-01  0.1250E-01  1  0.0000E+00  0.0000E+00
  0.8088E+01  0.1250E-01  0.1250E-01  1  0.0000E+00  0.0000E+00
  0.8113E+01  0.1250E-01  0.1250E-01  1  0.0000E+00  0.0000E+00
  0.8138E+01  0.1250E-01  0.1250E-01  1  0.0000E+00  0.0000E+00
  0.8163E+01  0.1250E-01  0.1250E-01  1  0.0000E+00  0.0000E+00
  0.8188E+01  0.1250E-01  0.1250E-01  1  0.0000E+00  0.0000E+00
  0.8213E+01  0.1250E-01  0.1250E-01  1  0.0000E+00  0.0000E+00
  0.8238E+01  0.1250E-01  0.1250E-01  1  0.0000E+00  0.0000E+00
  0.8263E+01  0.1250E-01  0.1250E-01  1  0.0000E+00  0.0000E+00
  0.8288E+01  0.1250E-01  0.1250E-01  1  0.0000E+00  0.0000E+00
  0.8313E+01  0.1250E-01  0.1250E-01  1  0.0000E+00  0.0000E+00
  0.8338E+01  0.1250E-01  0.1250E-01  1  0.0000E+00  0.0000E+00
  0.8363E+01  0.1250E-01  0.1250E-01  1  0.0000E+00  0.0000E+00
  0.8388E+01  0.1250E-01  0.1250E-01  1  0.0000E+00  0.0000E+00
  0.8413E+01  0.1250E-01  0.1250E-01  1  0.0000E+00  0.0000E+00
  0.8438E+01  0.1250E-01  0.1250E-01  1  0.0000E+00  0.0000E+00
  0.8463E+01  0.1250E-01  0.1250E-01  1  0.0000E+00  0.0000E+00
  0.8488E+01  0.1250E-01  0.1250E-01  1  0.0000E+00  0.0000E+00
  0.8513E+01  0.1250E-01  0.1250E-01  1  0.0000E+00  0.0000E+00
  0.8538E+01  0.1250E-01  0.1250E-01  1  0.0000E+00  0.0000E+00
  0.8563E+01  0.1250E-01  0.1250E-01  1  0.0000E+00  0.0000E+00
  0.8588E+01  0.1250E-01  0.1250E-01  1  0.0000E+00  0.0000E+00
  0.8613E+01  0.1250E-01  0.1250E-01  1  0.0000E+00  0.0000E+00
  0.8638E+01  0.1250E-01  0.1250E-01  1  0.0000E+00  0.0000E+00
  0.8663E+01  0.1250E-01  0.1250E-01  1  0.0000E+00  0.0000E+00
  0.8688E+01  0.1250E-01  0.1250E-01  1  0.0000E+00  0.0000E+00
  0.8713E+01  0.1250E-01  0.1250E-01  1  0.0000E+00  0.0000E+00
  0.8738E+01  0.1250E-01  0.1250E-01  1  0.0000E+00  0.0000E+00
  0.8763E+01  0.1250E-01  0.1250E-01  1  0.0000E+00  0.0000E+00
  0.8788E+01  0.1250E-01  0.1250E-01  1  0.0000E+00  0.0000E+00
  0.8813E+01  0.1250E-01  0.1250E-01  1  0.0000E+00  0.0000E+00
  0.8838E+01  0.1250E-01  0.1250E-01  1  0.0000E+00  0.0000E+00
  0.8863E+01  0.1250E-01  0.1250E-01  1  0.0000E+00  0.0000E+00
  0.8888E+01  0.1250E-01  0.1250E-01  1  0.0000E+00  0.0000E+00
  0.8913E+01  0.1250E-01  0.1250E-01  1  0.0000E+00  0.0000E+00
  0.8938E+01  0.1250E-01  0.1250E-01  1  0.0000E+00  0.0000E+00
  0.8963E+01  0.1250E-01  0.1250E-01  1  0.0000E+00  0.0000E+00
  0.8988E+01  0.1250E-01  0.1250E-01  1  0.0000E+00  0.0000E+00
  0.9013E+01  0.1250E-01  0.1250E-01  1  0.0000E+00  0.0000E+00
  0.9038E+01  0.1250E-01  0.1250E-01  1  0.0000E+00  0.0000E+00
  0.9063E+01  0.1250E-01  0.1250E-01  1  0.0000E+00  0.0000E+00
  0.9088E+01  0.1250E-01  0.1250E-01  1  0.0000E+00  0.0000E+00
  0.9113E+01  0.1250E-01  0.1250E-01  1  0.0000E+00  0.0000E+00
  0.9138E+01  0.1250E-01  0.1250E-01  1  0.0000E+00  0.0000E+00
  0.9163E+01  0.1250E-01  0.1250E-01  1  0.0000E+00  0.0000E+00
  0.9188E+01  0.1250E-01  0.1250E-01  1  0.0000E+00  0.0000E+00
  0.9213E+01  0.1250E-01  0.1250E-01  1  0.0000E+00  0.0000E+00
  0.9238E+01  0.1250E-01  0.1250E-01  1  0.0000E+00  0.0000E+00
  0.9263E+01  0.1250E-01  0.1250E-01  1  0.0000E+00  0.0000E+00
  0.9288E+01  0.1250E-01  0.1250E-01  1  0.0000E+00  0.0000E+00
  0.9313E+01  0.1250E-01  0.1250E-01  1  0.0000E+00  0.0000E+00
  0.9338E+01  0.1250E-01  0.1250E-01  1  0.0000E+00  0.0000E+00
  0.9363E+01  0.1250E-01  0.1250E-01  1  0.0000E+00  0.0000E+00
  0.9388E+01  0.1250E-01  0.1250E-01  1  0.0000E+00  0.0000E+00
  0.9413E+01  0.1250E-01  0.1250E-01  1  0.0000E+00  0.0000E+00
  0.9438E+01  0.1250E-01  0.1250E-01  1  0.0000E+00  0.0000E+00
  0.9463E+01  0.1250E-01  0.1250E-01  1  0.0000E+00  0.0000E+00
  0.9488E+01  0.1250E-01  0.1250E-01  1  0.0000E+00  0.0000E+00
  0.9513E+01  0.1250E-01  0.1250E-01  1  0.0000E+00  0.0000E+00
  0.9538E+01  0.1250E-01  0.1250E-01  1  0.0000E+00  0.0000E+00
  0.9563E+01  0.1250E-01  0.1250E-01  1  0.0000E+00  0.0000E+00
  0.9588E+01  0.1250E-01  0.1250E-01  1  0.0000E+00  0.0000E+00
  0.9613E+01  0.1250E-01  0.1250E-01  1  0.0000E+00  0.0000E+00
  0.9638E+01  0.1250E-01  0.1250E-01  1  0.0000E+00  0.0000E+00
  0.9663E+01  0.1250E-01  0.1250E-01  1  0.0000E+00  0.0000E+00
  0.9688E+01  0.1250E-01  0.1250E-01  1  0.0000E+00  0.0000E+00
  0.9713E+01  0.1250E-01  0.1250E-01  1  0.0000E+00  0.0000E+00
  0.9738E+01  0.1250E-01  0.1250E-01  1  0.0000E+00  0.0000E+00
  0.9763E+01  0.1250E-01  0.1250E-01  1  0.0000E+00  0.0000E+00
  0.9788E+01  0.1250E-01  0.1250E-01  1  0.0000E+00  0.0000E+00
  0.9813E+01  0.1250E-01  0.1250E-01  1  0.0000E+00  0.0000E+00
  0.9838E+01  0.1250E-01  0.1250E-01  1  0.0000E+00  0.0000E+00
  0.9863E+01  0.1250E-01  0.1250E-01  1  0.0000E+00  0.0000E+00
  0.9888E+01  0.1250E-01  0.1250E-01  1  0.0000E+00  0.0000E+00
  0.9913E+01  0.1250E-01  0.1250E-01  1  0.0000E+00  0.0000E+00
  0.9938E+01  0.1250E-01  0.1250E-01  1  0.0000E+00  0.0000E+00
  0.9963E+01  0.1250E-01  0.1250E-01  1  0.0000E+00  0.0000E+00
  0.9988E+01  0.1250E-01  0.1250E-01  1  0.0000E+00  0.0000E+00
  0.1001E+02  0.1250E-01  0.1250E-01  1  0.0000E+00  0.0000E+00
  0.1004E+02  0.1250E-01  0.1250E-01  1  0.0000E+00  0.0000E+00
  0.1006E+02  0.1250E-01  0.1250E-01  1  0.0000E+00  0.0000E+00
  0.1009E+02  0.1250E-01  0.1250E-01  1  0.0000E+00  0.0000E+00
  0.1011E+02  0.1250E-01  0.1250E-01  1  0.0000E+00  0.0000E+00
  0.1014E+02  0.1250E-01  0.1250E-01  1  0.0000E+00  0.0000E+00
  0.1016E+02  0.1250E-01  0.1250E-01  1  0.0000E+00  0.0000E+00
  0.1019E+02  0.1250E-01  0.1250E-01  1  0.0000E+00  0.0000E+00
  0.1021E+02  0.1250E-01  0.1250E-01  1  0.0000E+00  0.0000E+00
  0.1024E+02  0.1250E-01  0.1250E-01  1  0.0000E+00  0.0000E+00
  0.1026E+02  0.1250E-01  0.1250E-01  1  0.0000E+00  0.0000E+00
  0.1029E+02  0.1250E-01  0.1250E-01  1  0.0000E+00  0.0000E+00
  0.1031E+02  0.1250E-01  0.1250E-01  1  0.0000E+00  0.0000E+00
  0.1034E+02  0.1250E-01  0.1250E-01  1  0.0000E+00  0.0000E+00
  0.1036E+02  0.1250E-01  0.1250E-01  1  0.0000E+00  0.0000E+00
  0.1039E+02  0.1250E-01  0.1250E-01  1  0.0000E+00  0.0000E+00
  0.1041E+02  0.1250E-01  0.1250E-01  1  0.0000E+00  0.0000E+00
  0.1044E+02  0.1250E-01  0.1250E-01  1  0.0000E+00  0.0000E+00
  0.1046E+02  0.1250E-01  0.1250E-01  1  0.0000E+00  0.0000E+00
  0.1049E+02  0.1250E-01  0.1250E-01  1  0.0000E+00  0.0000E+00
  0.1051E+02  0.1250E-01  0.1250E-01  1  0.0000E+00  0.0000E+00
  0.1054E+02  0.1250E-01  0.1250E-01  1  0.0000E+00  0.0000E+00
  0.1056E+02  0.1250E-01  0.1250E-01  1  0.0000E+00  0.0000E+00
  0.1059E+02  0.1250E-01  0.1250E-01  1  0.0000E+00  0.0000E+00
  0.1061E+02  0.1250E-01  0.1250E-01  1  0.0000E+00  0.0000E+00
  0.1064E+02  0.1250E-01  0.1250E-01  1  0.0000E+00  0.0000E+00
  0.1066E+02  0.1250E-01  0.1250E-01  1  0.0000E+00  0.0000E+00
  0.1069E+02  0.1250E-01  0.1250E-01  1  0.0000E+00  0.0000E+00
  0.1071E+02  0.1250E-01  0.1250E-01  1  0.0000E+00  0.0000E+00
  0.1074E+02  0.1250E-01  0.1250E-01  1  0.0000E+00  0.0000E+00
  0.1076E+02  0.1250E-01  0.1250E-01  1  0.0000E+00  0.0000E+00
  0.1079E+02  0.1250E-01  0.1250E-01  1  0.0000E+00  0.0000E+00
  0.1081E+02  0.1250E-01  0.1250E-01  1  0.0000E+00  0.0000E+00
  0.1084E+02  0.1250E-01  0.1250E-01  1  0.0000E+00  0.0000E+00
  0.1086E+02  0.1250E-01  0.1250E-01  1  0.0000E+00  0.0000E+00
  0.1089E+02  0.1250E-01  0.1250E-01  1  0.0000E+00  0.0000E+00
  0.1091E+02  0.1250E-01  0.1250E-01  1  0.0000E+00  0.0000E+00
  0.1094E+02  0.1250E-01  0.1250E-01  1  0.0000E+00  0.0000E+00
  0.1096E+02  0.1250E-01  0.1250E-01  1  0.0000E+00  0.0000E+00
  0.1099E+02  0.1250E-01  0.1250E-01  1  0.0000E+00  0.0000E+00
  0.1101E+02  0.1250E-01  0.1250E-01  1  0.0000E+00  0.0000E+00
  0.1104E+02  0.1250E-01  0.1250E-01  1  0.0000E+00  0.0000E+00
  0.1106E+02  0.1250E-01  0.1250E-01  1  0.0000E+00  0.0000E+00
  0.1109E+02  0.1250E-01  0.1250E-01  1  0.0000E+00  0.0000E+00
  0.1111E+02  0.1250E-01  0.1250E-01  1  0.0000E+00  0.0000E+00
  0.1114E+02  0.1250E-01  0.1250E-01  1  0.0000E+00  0.0000E+00
  0.1116E+02  0.1250E-01  0.1250E-01  1  0.0000E+00  0.0000E+00
  0.1119E+02  0.1250E-01  0.1250E-01  1  0.0000E+00  0.0000E+00
  0.1121E+02  0.1250E-01  0.1250E-01  1  0.0000E+00  0.0000E+00
  0.1124E+02  0.1250E-01  0.1250E-01  1  0.0000E+00  0.0000E+00
  0.1126E+02  0.1250E-01  0.1250E-01  1  0.0000E+00  0.0000E+00
  0.1129E+02  0.1250E-01  0.1250E-01  1  0.0000E+00  0.0000E+00
  0.1131E+02  0.1250E-01  0.1250E-01  1  0.0000E+00  0.0000E+00
  0.1134E+02  0.1250E-01  0.1250E-01  1  0.0000E+00  0.0000E+00
  0.1136E+02  0.1250E-01  0.1250E-01  1  0.0000E+00  0.0000E+00
  0.1139E+02  0.1250E-01  0.1250E-01  1  0.0000E+00  0.0000E+00
  0.1141E+02  0.1250E-01  0.1250E-01  1  0.0000E+00  0.0000E+00
  0.1144E+02  0.1250E-01  0.1250E-01  1  0.0000E+00  0.0000E+00
  0.1146E+02  0.1250E-01  0.1250E-01  1  0.0000E+00  0.0000E+00
  0.1149E+02  0.1250E-01  0.1250E-01  1  0.0000E+00  0.0000E+00
  0.1151E+02  0.1250E-01  0.1250E-01  1  0.0000E+00  0.0000E+00
  0.1154E+02  0.1250E-01  0.1250E-01  1  0.0000E+00  0.0000E+00
  0.1156E+02  0.1250E-01  0.1250E-01  1  0.0000E+00  0.0000E+00
  0.1159E+02  0.1250E-01  0.1250E-01  1  0.0000E+00  0.0000E+00
  0.1161E+02  0.1250E-01  0.1250E-01  1  0.0000E+00  0.0000E+00
  0.1164E+02  0.1250E-01  0.1250E-01  1  0.0000E+00  0.0000E+00